LAMMPS (29 Oct 2020)
# Rhodopsin model

variable	x index 1
variable	y index 1
variable	z index 1

units           real
neigh_modify    delay 5 every 1

atom_style      full
atom_modify	map hash
bond_style      harmonic
angle_style     charmm
dihedral_style  charmm
improper_style  harmonic
pair_style      lj/charmm/coul/charmm 8.0 10.0
read_data       data.rhodo
Reading data file ...
  orthogonal box = (-27.500000 -38.500000 -36.364600) to (27.500000 38.500000 36.361500)
  2 by 2 by 2 MPI processor grid
  reading atoms ...
  32000 atoms
  reading velocities ...
  32000 velocities
  scanning bonds ...
  4 = max bonds/atom
  scanning angles ...
  8 = max angles/atom
  scanning dihedrals ...
  18 = max dihedrals/atom
  scanning impropers ...
  2 = max impropers/atom
  reading bonds ...
  27723 bonds
  reading angles ...
  40467 angles
  reading dihedrals ...
  56829 dihedrals
  reading impropers ...
  1034 impropers
Finding 1-2 1-3 1-4 neighbors ...
  special bond factors lj:    0.0      0.0      0.0     
  special bond factors coul:  0.0      0.0      0.0     
     4 = max # of 1-2 neighbors
    12 = max # of 1-3 neighbors
    24 = max # of 1-4 neighbors
    26 = max # of special neighbors
  special bonds CPU = 0.034 seconds
  read_data CPU = 0.212 seconds

replicate	$x $y $z
replicate	1 $y $z
replicate	1 1 $z
replicate	1 1 1
Replicating atoms ...
  orthogonal box = (-27.500000 -38.500000 -36.364600) to (27.500000 38.500000 36.361500)
  2 by 2 by 2 MPI processor grid
  32000 atoms
  27723 bonds
  40467 angles
  56829 dihedrals
  1034 impropers
Finding 1-2 1-3 1-4 neighbors ...
  special bond factors lj:    0.0      0.0      0.0     
  special bond factors coul:  0.0      0.0      0.0     
     4 = max # of 1-2 neighbors
    12 = max # of 1-3 neighbors
    24 = max # of 1-4 neighbors
    26 = max # of special neighbors
  special bonds CPU = 0.013 seconds
  replicate CPU = 0.038 seconds

# Fixes using available styles
fix             1 all nve/limit 0.01
fix             2 all nph iso 0.0 0.0 1000.0 mtk no pchain 0
fix             3 all langevin 300.0 300.0 100.0 48279

special_bonds   charmm

thermo          50
thermo_style    multi
timestep        2.0

run		100
WARNING: One or more atoms are time integrated more than once (../modify.cpp:285)
Neighbor list info ...
  update every 1 steps, delay 5 steps, check yes
  max neighbors/atom: 2000, page size: 100000
  master list distance cutoff = 12
  ghost atom cutoff = 12
  binsize = 6, bins = 10 13 13
  1 neighbor lists, perpetual/occasional/extra = 1 0 0
  (1) pair lj/charmm/coul/charmm, perpetual
      attributes: half, newton on
      pair build: half/bin/newton
      stencil: half/bin/3d/newton
      bin: standard
Per MPI rank memory allocation (min/avg/max) = 39.02 | 39.27 | 39.42 Mbytes
---------------- Step        0 ----- CPU =      0.0000 (sec) ----------------
TotEng   =    -29603.3766 KinEng   =     21444.8313 Temp     =       224.8288 
PotEng   =    -51048.2079 E_bond   =      2538.0032 E_angle  =     10921.3750 
E_dihed  =      5211.7865 E_impro  =       213.5116 E_vdwl   =     -2307.8634 
E_coul   =    -67625.0208 E_long   =         0.0000 Press    =     10720.0842 
Volume   =    307995.0335 
---------------- Step       50 ----- CPU =      3.1472 (sec) ----------------
TotEng   =    -58677.4636 KinEng   =      4712.0319 Temp     =        49.4012 
PotEng   =    -63389.4955 E_bond   =      4607.3665 E_angle  =      5579.8889 
E_dihed  =      4208.1748 E_impro  =        99.6375 E_vdwl   =     -2102.0593 
E_coul   =    -75782.5039 E_long   =         0.0000 Press    =     -1825.6735 
Volume   =    302761.5458 
---------------- Step      100 ----- CPU =      6.5147 (sec) ----------------
TotEng   =    -55313.7209 KinEng   =      4691.5766 Temp     =        49.1867 
PotEng   =    -60005.2975 E_bond   =      4687.7875 E_angle  =      5533.8286 
E_dihed  =      4109.4880 E_impro  =        99.7654 E_vdwl   =        45.4056 
E_coul   =    -74481.5727 E_long   =         0.0000 Press    =      2478.1819 
Volume   =    292817.4359 
Loop time of 6.51485 on 8 procs for 100 steps with 32000 atoms

Performance: 2.652 ns/day, 9.048 hours/ns, 15.350 timesteps/s
97.7% CPU use with 8 MPI tasks x no OpenMP threads

MPI task timing breakdown:
Section |  min time  |  avg time  |  max time  |%varavg| %total
---------------------------------------------------------------
Pair    | 5.4421     | 5.6321     | 5.808      |   5.2 | 86.45
Bond    | 0.203      | 0.21572    | 0.23032    |   1.9 |  3.31
Neigh   | 0.27949    | 0.28221    | 0.28479    |   0.5 |  4.33
Comm    | 0.093077   | 0.26062    | 0.43842    |  23.9 |  4.00
Output  | 0.00026446 | 0.00027224 | 0.00029263 |   0.0 |  0.00
Modify  | 0.11809    | 0.11841    | 0.1187     |   0.1 |  1.82
Other   |            | 0.005567   |            |       |  0.09

Nlocal:        4000.00 ave        4076 max        3935 min
Histogram: 1 1 1 1 0 1 1 1 0 1
Nghost:        16439.4 ave       16484 max       16370 min
Histogram: 1 1 0 0 1 0 1 1 1 2
Neighs:    1.55750e+06 ave 1.63283e+06 max 1.50123e+06 min
Histogram: 2 0 1 2 0 1 0 0 1 1

Total # of neighbors = 12459995
Ave neighs/atom = 389.37484
Ave special neighs/atom = 7.4318750
Neighbor list builds = 3
Dangerous builds = 0
Total wall time: 0:00:06
