LAMMPS (29 Oct 2020)
# Rhodopsin model

variable	x index 1
variable	y index 1
variable	z index 1

units           real
neigh_modify    delay 5 every 1

atom_style      full
atom_modify	map hash
bond_style      harmonic
angle_style     charmm
dihedral_style  charmm
improper_style  harmonic
pair_style      lj/charmm/coul/charmm 8.0 10.0
read_data       data.rhodo
Reading data file ...
  orthogonal box = (-27.500000 -38.500000 -36.364600) to (27.500000 38.500000 36.361500)
  1 by 2 by 1 MPI processor grid
  reading atoms ...
  32000 atoms
  reading velocities ...
  32000 velocities
  scanning bonds ...
  4 = max bonds/atom
  scanning angles ...
  8 = max angles/atom
  scanning dihedrals ...
  18 = max dihedrals/atom
  scanning impropers ...
  2 = max impropers/atom
  reading bonds ...
  27723 bonds
  reading angles ...
  40467 angles
  reading dihedrals ...
  56829 dihedrals
  reading impropers ...
  1034 impropers
Finding 1-2 1-3 1-4 neighbors ...
  special bond factors lj:    0.0      0.0      0.0     
  special bond factors coul:  0.0      0.0      0.0     
     4 = max # of 1-2 neighbors
    12 = max # of 1-3 neighbors
    24 = max # of 1-4 neighbors
    26 = max # of special neighbors
  special bonds CPU = 0.031 seconds
  read_data CPU = 0.207 seconds

replicate	$x $y $z
replicate	1 $y $z
replicate	1 1 $z
replicate	1 1 1
Replicating atoms ...
  orthogonal box = (-27.500000 -38.500000 -36.364600) to (27.500000 38.500000 36.361500)
  1 by 2 by 1 MPI processor grid
  32000 atoms
  27723 bonds
  40467 angles
  56829 dihedrals
  1034 impropers
Finding 1-2 1-3 1-4 neighbors ...
  special bond factors lj:    0.0      0.0      0.0     
  special bond factors coul:  0.0      0.0      0.0     
     4 = max # of 1-2 neighbors
    12 = max # of 1-3 neighbors
    24 = max # of 1-4 neighbors
    26 = max # of special neighbors
  special bonds CPU = 0.029 seconds
  replicate CPU = 0.060 seconds

# Fixes using available styles
fix             1 all nve/limit 0.01
fix             2 all nph iso 0.0 0.0 1000.0 mtk no pchain 0
fix             3 all langevin 300.0 300.0 100.0 48279

special_bonds   charmm

thermo          50
thermo_style    multi
timestep        2.0

run		100
WARNING: One or more atoms are time integrated more than once (../modify.cpp:285)
Neighbor list info ...
  update every 1 steps, delay 5 steps, check yes
  max neighbors/atom: 2000, page size: 100000
  master list distance cutoff = 12
  ghost atom cutoff = 12
  binsize = 6, bins = 10 13 13
  1 neighbor lists, perpetual/occasional/extra = 1 0 0
  (1) pair lj/charmm/coul/charmm, perpetual
      attributes: half, newton on
      pair build: half/bin/newton
      stencil: half/bin/3d/newton
      bin: standard
Per MPI rank memory allocation (min/avg/max) = 90.61 | 90.81 | 91.00 Mbytes
---------------- Step        0 ----- CPU =      0.0000 (sec) ----------------
TotEng   =    -29603.3766 KinEng   =     21444.8313 Temp     =       224.8288 
PotEng   =    -51048.2079 E_bond   =      2538.0032 E_angle  =     10921.3750 
E_dihed  =      5211.7865 E_impro  =       213.5116 E_vdwl   =     -2307.8634 
E_coul   =    -67625.0208 E_long   =         0.0000 Press    =     10720.0842 
Volume   =    307995.0335 
---------------- Step       50 ----- CPU =     12.2402 (sec) ----------------
TotEng   =    -59535.0359 KinEng   =      4702.1948 Temp     =        49.2981 
PotEng   =    -64237.2308 E_bond   =      4573.0446 E_angle  =      5592.7618 
E_dihed  =      4215.4333 E_impro  =        89.7369 E_vdwl   =     -2153.7562 
E_coul   =    -76554.4511 E_long   =         0.0000 Press    =     -1831.5479 
Volume   =    302845.3607 
---------------- Step      100 ----- CPU =     25.2128 (sec) ----------------
TotEng   =    -55791.9275 KinEng   =      4758.4782 Temp     =        49.8881 
PotEng   =    -60550.4057 E_bond   =      4667.9272 E_angle  =      5578.7275 
E_dihed  =      4076.0694 E_impro  =        99.9125 E_vdwl   =        14.0741 
E_coul   =    -74987.1166 E_long   =         0.0000 Press    =      2388.6637 
Volume   =    292659.5339 
Loop time of 25.2129 on 2 procs for 100 steps with 32000 atoms

Performance: 0.685 ns/day, 35.018 hours/ns, 3.966 timesteps/s
98.8% CPU use with 2 MPI tasks x no OpenMP threads

MPI task timing breakdown:
Section |  min time  |  avg time  |  max time  |%varavg| %total
---------------------------------------------------------------
Pair    | 22.108     | 22.365     | 22.623     |   5.4 | 88.71
Bond    | 0.83709    | 0.86715    | 0.89721    |   3.2 |  3.44
Neigh   | 1.1026     | 1.1026     | 1.1026     |   0.0 |  4.37
Comm    | 0.12375    | 0.41078    | 0.6978     |  44.8 |  1.63
Output  | 0.00033917 | 0.00035654 | 0.0003739  |   0.0 |  0.00
Modify  | 0.4512     | 0.45149    | 0.45177    |   0.0 |  1.79
Other   |            | 0.01498    |            |       |  0.06

Nlocal:        16000.0 ave       16084 max       15916 min
Histogram: 1 0 0 0 0 0 0 0 0 1
Nghost:        34330.0 ave       34394 max       34266 min
Histogram: 1 0 0 0 0 0 0 0 0 1
Neighs:    6.25566e+06 ave 6.31843e+06 max  6.1929e+06 min
Histogram: 1 0 0 0 0 0 0 0 0 1

Total # of neighbors = 12511328
Ave neighs/atom = 390.97900
Ave special neighs/atom = 7.4318750
Neighbor list builds = 3
Dangerous builds = 0
Total wall time: 0:00:26
